                               Psi4 1.9.1 release

  ==> Input File <==

--------------------------------------------------------------------------
memory 10 gb

molecule lih {
H  0.       0.      -0.765
Li 0.       0.       0.765
symmetry c1
no_com
no_reorient
}

set {
    reference rhf
    basis 6-31g
    ms0 false
    ex_allow [1, 0]
    num_roots 37
    num_dets_print 225
    diag_method rsp
    print 2
    dipmom true
    opdm true
    tdm true
}

thisenergy, ciwfn = prop('cisd', properties=['DIPOLE', 'TRANSITION_DIPOLE'], return_wfn=True)

mints = MintsHelper(ciwfn.basisset())

AOdip = mints.ao_dipole()
AOdip[0].print_out()
AOdip[1].print_out()
AOdip[2].print_out()

# MO coefficients
C = ciwfn.Ca().to_array()

# overlap matrix
S = ciwfn.S().to_array()

print("Overlap test:")
n = S.shape[0]
print(np.mean(np.abs(C.T @ S @ C - np.eye(n))))

# z-direction AO dipole moment matrix
AOdipmat = AOdip[2].to_array()
MOdipmat = C.T @ AOdipmat @ C

# set CI size
cisize = 37

# grab the Hamiltonian
test = psi4.core.variables()
ham = []
for j in range(cisize):
    ham.append( test['CI ROOT '+str(j)+' TOTAL ENERGY'] )
ham = np.array(ham)

print("Diagonalized Hamiltonian:")
print(ham)

# initialize CI dipole moment matrix in z direction
CIdimatzMO = np.zeros((cisize,cisize))
CIdimatzAO = np.zeros((cisize,cisize))
# initialize B tensor
Bten = np.zeros((cisize, cisize, n, n))
for i in range(cisize):
    for j in range(cisize):
        ciop_dm = ciwfn.get_opdm(i,j,'SUM',True)
        # store this in Bten
        Bten[i,j,:,:] = ciop_dm.to_array()
        # density matrix: change basis from MO to AO
        dmAO = C @ ciop_dm.to_array() @ C.T
        # compute this particular density matrix element
        CIdimatzMO[i, j] = np.trace( ciop_dm.to_array() @ MOdipmat )
        CIdimatzAO[i, j] = np.trace( dmAO @ AOdipmat )

print("Difference between CI basis dipole moment matrices computed via AO vs MO:")
print(np.mean(np.abs(CIdimatzMO - CIdimatzAO)))

# reshape OPDMs into B tensor

np.savez('./cis_lih_6-31g.npz',C=C,S=S,AOdipmat=AOdipmat,CIdimatz=CIdimatzMO,Bten=Bten,ham=ham)

# for debugging purposes:
# Bmat = Bten.reshape((cisize**2, n**2))
# Bmat[np.abs(Bmat) < 1e-14] = 0.0
# print(Bmat)

--------------------------------------------------------------------------

    Molecular point group: c1

    Geometry (in Angstrom), charge = 0, multiplicity = 1:

       Center              X                  Y                   Z               Mass
    ------------   -----------------  -----------------  -----------------  -----------------
         H            0.000000000000     0.000000000000    -0.765000000000     1.007825032230
         LI           0.000000000000     0.000000000000     0.765000000000     7.016003436600

  Charge       = 0
  Multiplicity = 1

    Orbital Energies [Eh]
    ---------------------

    Doubly Occupied:

       1A     -2.448805     2A     -0.304255

  @RHF Final Energy:    -7.97793164123277
    Total Energy =                         -7.9779316412327717
 Dipole X            :         -0.0000000            0.0000000           -0.0000000
 Dipole Y            :         -0.0000000            0.0000000           -0.0000000
 Dipole Z            :         -0.6100323            2.8912810            2.2812487
 Magnitude           :                                                    2.2812487

   ==> Energetics <==

    SCF energy =           -7.977931641232772
    Total CI energy =      -7.977931641232761

   ==> CISD root 0 information <==

    CISD Root 0 energy =    -7.977931641232761

   The 37 most important determinants:

    *   1    1.000000  (    0,    0)  1AX 2AX
    *   2    0.000000  (    0,    1)  1AX 2AA 3AB
    *   3    0.000000  (    1,    0)  1AX 2AB 3AA
    *   4    0.000000  (    7,    0)  1AX 2AB 6AA
    *   5    0.000000  (    0,    7)  1AX 2AA 6AB
    *   6    0.000000  (    9,    0)  1AX 2AB 7AA
    *   7    0.000000  (    0,    9)  1AX 2AA 7AB
    *   8    0.000000  (   15,    0)  1AX 2AB 10AA
    *   9    0.000000  (    0,   15)  1AX 2AA 10AB

   ==> CISD root 1 information <==

    CISD Root 1 energy =    -7.861011707766560

   The 37 most important determinants:

    *   1    0.641038  (    1,    0)  1AX 2AB 3AA
    *   2   -0.641038  (    0,    1)  1AX 2AA 3AB
    *   3   -0.246447  (    0,    7)  1AX 2AA 6AB

 Dipole X            :         -0.0000000            0.0000000           -0.0000000
 Dipole Y            :         -0.0000000            0.0000000           -0.0000000
 Dipole Z            :          0.0092202            0.0000000            0.0092202
 Magnitude           :                                                    0.0092202
*** Psi4 exiting successfully. Buy a developer a beer!
