                               Psi4 1.9.1 release

  ==> Input File <==

--------------------------------------------------------------------------
memory 10 gb

molecule lih {
H  0.       0.      -0.765
Li 0.       0.       0.765
symmetry c1
no_com
no_reorient
}

set {
    reference rhf
    basis sto-3g
    calc_s_squared true
    ex_allow [1, 0]
    num_roots 17
    num_dets_print 225
    diag_method rsp
    print 2
    dipmom true
    opdm true
    tdm true
}

thisenergy, ciwfn = prop('cisd', properties=['DIPOLE', 'TRANSITION_DIPOLE'], return_wfn=True)

for i in range(17):
    for j in range(i+1):
        ciop_dm = ciwfn.get_opdm(i,j,'SUM',True)
        ciop_dm.print_out()

mints = MintsHelper(ciwfn.basisset())

AOdip = mints.ao_dipole()
AOdip[0].print_out()
AOdip[1].print_out()
AOdip[2].print_out()

ciwfn.Ca().print_out()               # Print orbital information

--------------------------------------------------------------------------

    Molecular point group: c1

    Geometry (in Angstrom), charge = 0, multiplicity = 1:

       Center              X                  Y                   Z               Mass
    ------------   -----------------  -----------------  -----------------  -----------------
         H            0.000000000000     0.000000000000    -0.765000000000     1.007825032230
         LI           0.000000000000     0.000000000000     0.765000000000     7.016003436600

  Charge       = 0
  Multiplicity = 1

    Orbital Energies [Eh]
    ---------------------

    Doubly Occupied:

       1A     -2.347321     2A     -0.291129

  @RHF Final Energy:    -7.86330711928513
    Total Energy =                         -7.8633071192851336
 Dipole X            :          0.0000000            0.0000000            0.0000000
 Dipole Y            :          0.0000000            0.0000000            0.0000000
 Dipole Z            :         -0.9859648            2.8912810            1.9053162
 Magnitude           :                                                    1.9053162

   ==> Energetics <==

    SCF energy =           -7.863307119285134
    Total CI energy =      -7.863307119285128

   ==> CISD root 0 information <==

    CISD Root 0 energy =    -7.863307119285128

   The 17 most important determinants:

    *   1   -1.000000  (    0,    0)  1AX 2AX
    *   2   -0.000000  (    0,    1)  1AX 2AA 3AB
    *   3   -0.000000  (    1,    0)  1AX 2AB 3AA
    *   4   -0.000000  (    0,    7)  1AX 2AA 6AB
    *   5   -0.000000  (    7,    0)  1AX 2AB 6AA

   ==> CISD root 1 information <==

    CISD Root 1 energy =    -7.728909491108254

   The 17 most important determinants:

    *   1    0.694520  (    1,    0)  1AX 2AB 3AA
    *   2   -0.694520  (    0,    1)  1AX 2AA 3AB
    *   3   -0.132757  (    0,    7)  1AX 2AA 6AB
    *   4    0.132757  (    7,    0)  1AX 2AB 6AA
    *   5    0.003931  (    2,    0)  1AB 2AX 3AA
    *   6   -0.003931  (    0,    2)  1AA 2AX 3AB
    *   7    0.001415  (    0,    8)  1AA 2AX 6AB

 Dipole X            :          0.0000000            0.0000000            0.0000000
 Dipole Y            :          0.0000000            0.0000000            0.0000000
 Dipole Z            :         -0.1515295            0.0000000           -0.1515295
 Magnitude           :                                                    0.1515295
*** Psi4 exiting successfully. Buy a developer a beer!
