                               Psi4 1.9.1 release

  ==> Input File <==

--------------------------------------------------------------------------
molecule h2 {
H  0.       0.      -0.37
H  0.       0.       0.37
symmetry c1
no_com
no_reorient
}

set {
    reference rhf
    basis 6-31g
    ex_level 1
    calc_s_squared true
    num_roots 7
    diag_method rsp
    print 2
    dipmom true
    opdm true
    tdm true
}

thisenergy, ciwfn = prop('detci', properties=['DIPOLE', 'TRANSITION_DIPOLE'], return_wfn=True)

for i in range(7):
    for j in range(i+1):
        ciop_dm = ciwfn.get_opdm(i,j,'SUM',True)
        ciop_dm.print_out()

mints = MintsHelper(ciwfn.basisset())

AOdip = mints.ao_dipole()
AOdip[0].print_out()
AOdip[1].print_out()
AOdip[2].print_out()

ciwfn.Ca().print_out()               # Print orbital information

--------------------------------------------------------------------------

    Molecular point group: c1

    Geometry (in Angstrom), charge = 0, multiplicity = 1:

       Center              X                  Y                   Z               Mass
    ------------   -----------------  -----------------  -----------------  -----------------
         H            0.000000000000     0.000000000000    -0.370000000000     1.007825032230
         H            0.000000000000     0.000000000000     0.370000000000     1.007825032230

  Charge       = 0
  Multiplicity = 1

    Orbital Energies [Eh]
    ---------------------

    Doubly Occupied:

       1A     -0.595817

  @RHF Final Energy:    -1.12675531719201
    Total Energy =                         -1.1267553171920139
 Dipole X            :          0.0000000            0.0000000            0.0000000
 Dipole Y            :          0.0000000            0.0000000            0.0000000
 Dipole Z            :         -0.0000000            0.0000000           -0.0000000
 Magnitude           :                                                    0.0000000

   ==> Energetics <==

    SCF energy =           -1.126755317192014
    Total CI energy =      -1.126755317192013

   ==> DETCI root 0 information <==

    DETCI Root 0 energy =    -1.126755317192013

   The 7 most important determinants:

    *   1   -1.000000  (    0,    0)  1AX

   ==> DETCI root 1 information <==

    DETCI Root 1 energy =    -0.747636626536099

   The 7 most important determinants:

    *   1   -0.699316  (    1,    0)  1AB 2AA
    *   2    0.699316  (    0,    1)  1AA 2AB
    *   3   -0.104673  (    3,    0)  1AB 4AA
    *   4    0.104673  (    0,    3)  1AA 4AB

   ==> DETCI root 2 information <==

    DETCI Root 2 energy =    -0.566416132506239

   The 7 most important determinants:

 Dipole X            :          0.0000000            0.0000000            0.0000000
 Dipole Y            :          0.0000000            0.0000000            0.0000000
 Dipole Z            :         -0.3173956            0.0000000           -0.3173956
 Magnitude           :                                                    0.3173956
*** Psi4 exiting successfully. Buy a developer a beer!
