                               Psi4 1.9.1 release

  ==> Input File <==

--------------------------------------------------------------------------
memory 1 gb

molecule hehp {
1 1
H  0.       0.      -0.386
He 0.       0.       0.386
symmetry c1
no_com
no_reorient
}

set {
    reference rhf
    basis 6-31g
    ms0 false
    fci true
    diag_method rsp
    num_roots 16
    print 2
    dipmom true
    opdm true
    tdm true
}

thisenergy, ciwfn = prop('detci', properties=['DIPOLE', 'TRANSITION_DIPOLE'], return_wfn=True)

mints = MintsHelper(ciwfn.basisset())

AOdip = mints.ao_dipole()

print("*******************")
print("AOdip[0].print_out():")
AOdip[0].print_out()
print("*******************")
print("AOdip[1].print_out():")
AOdip[1].print_out()
print("*******************")
print("AOdip[2].print_out():")
AOdip[2].print_out()

# MO coefficients
print("*******************")
print("MO coefficients:")
C = ciwfn.Ca().to_array()
print(C)

# dipole moment matrix in z direction
AOdipmat = AOdip[2].to_array()

# initialize CI dipole moment matrix in z direction
CIdimatz = np.zeros((16,16))
for i in range(16):
    for j in range(16):
        ciop_dm = ciwfn.get_opdm(i,j,'SUM',True)
        # density matrix: change basis from MO to AO
        dmAO = C @ ciop_dm.to_array() @ C.T
        # compute this particular density matrix element
        CIdimatz[i, j] = np.trace( dmAO @ AOdipmat )

print(np.round(CIdimatz, 8))

CIdimatfile = np.load('../logfiles/casscf24_s15_heh+_6-31g_CI_dimat.npz')
print(CIdimatfile)

--------------------------------------------------------------------------

    Molecular point group: c1

    Geometry (in Angstrom), charge = 1, multiplicity = 1:

       Center              X                  Y                   Z               Mass
    ------------   -----------------  -----------------  -----------------  -----------------
         H            0.000000000000     0.000000000000    -0.386000000000     1.007825032230
         HE           0.000000000000     0.000000000000     0.386000000000     4.002603254130

  Charge       = 1
  Multiplicity = 1

    Orbital Energies [Eh]
    ---------------------

    Doubly Occupied:

       1A     -1.632772

  @RHF Final Energy:    -2.90985437754512
    Total Energy =                         -2.9098543775451216
 Dipole X            :          0.0000000            0.0000000            0.0000000
 Dipole Y            :          0.0000000            0.0000000            0.0000000
 Dipole Z            :         -1.0468469            0.7294343           -0.3174127
 Magnitude           :                                                    0.3174127

   ==> Energetics <==

    SCF energy =           -2.909854377545122
    Total CI energy =      -2.932310749393184

   ==> DETCI root 0 information <==

    DETCI Root 0 energy =    -2.932310749393184

   The 16 most important determinants:

    *   1    0.996034  (    0,    0)  1AX
    *   2   -0.047811  (    1,    1)  2AX
    *   3   -0.044652  (    3,    3)  4AX
    *   4   -0.034978  (    1,    3)  2AA 4AB
    *   5   -0.034978  (    3,    1)  2AB 4AA
    *   6   -0.016502  (    2,    2)  3AX
    *   7   -0.015720  (    2,    1)  2AB 3AA
    *   8   -0.015720  (    1,    2)  2AA 3AB
    *   9    0.013309  (    1,    0)  1AB 2AA
    *  10    0.013309  (    0,    1)  1AA 2AB
    *  11    0.005605  (    0,    2)  1AA 3AB
    *  12    0.005605  (    2,    0)  1AB 3AA
    *  13   -0.001544  (    2,    3)  3AA 4AB
    *  14   -0.001544  (    3,    2)  3AB 4AA
    *  15    0.000487  (    0,    3)  1AA 4AB
    *  16    0.000487  (    3,    0)  1AB 4AA

   ==> DETCI root 1 information <==

 Dipole X            :          0.0000000            0.0000000            0.0000000
 Dipole Y            :          0.0000000            0.0000000            0.0000000
 Dipole Z            :          0.0007169            0.0000000            0.0007169
 Magnitude           :                                                    0.0007169
*** Psi4 exiting successfully. Buy a developer a beer!
