                               Psi4 1.9.1 release

  ==> Input File <==

--------------------------------------------------------------------------
molecule hehp {
1 1
H  0.       0.      -0.386
He 0.       0.       0.386
}

set {
    reference rhf
    basis sto-3g
    ms0 true
    ex_level 2
    ex_allow [1, 0]
    diag_method rsp
    print 2
    dipmom true
    opdm true
    tdm true
}

thisenergy, ciwfn = prop('detci', properties=['DIPOLE', 'TRANSITION_DIPOLE'], return_wfn=True)

# for i in range(2):
#     for j in range(i+1):
#         ciop_dm = ciwfn.get_opdm(i,j,'SUM',True)
#         ciop_dm.print_out()

mints = MintsHelper(ciwfn.basisset())

AOdip = mints.ao_dipole()
AOdip[0].print_out()
AOdip[1].print_out()
AOdip[2].print_out()

ciwfn.Ca().print_out()               # Print orbital information

--------------------------------------------------------------------------

    Molecular point group: c2v

    Geometry (in Angstrom), charge = 1, multiplicity = 1:

       Center              X                  Y                   Z               Mass
    ------------   -----------------  -----------------  -----------------  -----------------
         H            0.000000000000     0.000000000000    -0.616715684885     1.007825032230
         HE           0.000000000000     0.000000000000     0.155284315115     4.002603254130

  Charge       = 1
  Multiplicity = 1

    Orbital Energies [Eh]
    ---------------------

    Doubly Occupied:

       1A1    -1.634579

  @RHF Final Energy:    -2.84138248990718
    Total Energy =                         -2.8413824899071844
 Dipole X            :          0.0000000            0.0000000            0.0000000
 Dipole Y            :          0.0000000            0.0000000            0.0000000
 Dipole Z            :         -0.2405882           -0.5785341           -0.8191223
 Magnitude           :                                                    0.8191223

   ==> Energetics <==

    SCF energy =           -2.841382489907184
    Total CI energy =      -2.841382489907186

   ==> DETCI root 0 information <==

    DETCI Root 0 energy =    -2.841382489907186

   The 3 most important determinants:

    *   1   -1.000000  (    0,    0)  1A1X

		 "A good bug is a dead bug"

			 - Starship Troopers

		 "I didn't write FORTRAN.  That's the problem."

			 - Edward Valeev

Properties will be evaluated at   0.000000,   0.000000,   0.000000 [a0]

Properties computed using the DETCI density matrix

 Multipole Moments:

 ------------------------------------------------------------------------------------
     Multipole            Electronic (a.u.)      Nuclear  (a.u.)        Total (a.u.)

 Dipole X            :          0.0000000            0.0000000            0.0000000
 Dipole Y            :          0.0000000            0.0000000            0.0000000
 Dipole Z            :         -0.2405882           -0.5785341           -0.8191223
 Magnitude           :                                                    0.8191223
*** Psi4 exiting successfully. Buy a developer a beer!
