                               Psi4 1.9.1 release

  ==> Input File <==

--------------------------------------------------------------------------
molecule hehp {
1 1
H  0.       0.      -0.386
He 0.       0.       0.386
}

set {
    reference rhf
    basis 6-31g
    ex_level 1
    calc_s_squared true
    num_roots 7
    diag_method rsp
    print 2
    dipmom true
    opdm true
    tdm true
}

thisenergy, ciwfn = prop('detci', properties=['DIPOLE', 'TRANSITION_DIPOLE'], return_wfn=True)

for i in range(7):
    for j in range(i+1):
        ciop_dm = ciwfn.get_opdm(i,j,'SUM',True)
        ciop_dm.print_out()

mints = MintsHelper(ciwfn.basisset())

AOdip = mints.ao_dipole()
AOdip[0].print_out()
AOdip[1].print_out()
AOdip[2].print_out()

ciwfn.Ca().print_out()               # Print orbital information

--------------------------------------------------------------------------

    Molecular point group: c2v

    Geometry (in Angstrom), charge = 1, multiplicity = 1:

       Center              X                  Y                   Z               Mass
    ------------   -----------------  -----------------  -----------------  -----------------
         H            0.000000000000     0.000000000000    -0.616715684885     1.007825032230
         HE           0.000000000000     0.000000000000     0.155284315115     4.002603254130

  Charge       = 1
  Multiplicity = 1

    Orbital Energies [Eh]
    ---------------------

    Doubly Occupied:

       1A1    -1.632772

  @RHF Final Energy:    -2.90985437754512
    Total Energy =                         -2.9098543775451224
 Dipole X            :          0.0000000            0.0000000            0.0000000
 Dipole Y            :          0.0000000            0.0000000            0.0000000
 Dipole Z            :         -0.1748680           -0.5785341           -0.7534021
 Magnitude           :                                                    0.7534021

   ==> Energetics <==

    SCF energy =           -2.909854377545122
    Total CI energy =      -2.909854377545125

   ==> DETCI root 0 information <==

    DETCI Root 0 energy =    -2.909854377545125

   The 7 most important determinants:

    *   1    1.000000  (    0,    0)  1A1X

   ==> DETCI root 1 information <==

    DETCI Root 1 energy =    -2.121292068094189

   The 7 most important determinants:

    *   1   -0.687285  (    0,    1)  1A1A 2A1B
    *   2    0.687285  (    1,    0)  1A1B 2A1A
    *   3    0.125600  (    2,    0)  1A1B 3A1A
    *   4   -0.125600  (    0,    2)  1A1A 3A1B
    *   5    0.108920  (    3,    0)  1A1B 4A1A
    *   6   -0.108920  (    0,    3)  1A1A 4A1B

   ==> DETCI root 2 information <==

    DETCI Root 2 energy =    -1.880613900279910

 Dipole X            :          0.0000000            0.0000000            0.0000000
 Dipole Y            :          0.0000000            0.0000000            0.0000000
 Dipole Z            :         -0.0008461            0.0000000           -0.0008461
 Magnitude           :                                                    0.0008461
*** Psi4 exiting successfully. Buy a developer a beer!
