                               Psi4 1.9.1 release

  ==> Input File <==

--------------------------------------------------------------------------
molecule hehp {
1 1
H  0.       0.      -0.386
He 0.       0.       0.386
}

set {
    reference rhf
    basis 6-31g
    num_roots 13
    ms0 false
    print 2
    dipmom true
    opdm true
    tdm true
    mo_write true
}

energy('fci')

thisenergy, ciwfn = prop('fci', properties=['DIPOLE', 'TRANSITION_DIPOLE'], return_wfn=True)

ciop_dm = ciwfn.get_opdm(0,0,'SUM',True)
ciop_dm.print_out()

ciop_dm = ciwfn.get_opdm(1,1,'SUM',True)
ciop_dm.print_out()

ciop_dm = ciwfn.get_opdm(2,2,'SUM',True)
ciop_dm.print_out()

ciop_dm = ciwfn.get_opdm(3,3,'SUM',True)
ciop_dm.print_out()

citr_dm = ciwfn.get_opdm(0,1,'SUM',True)
citr_dm.print_out()

citr_dm = ciwfn.get_opdm(0,2,'SUM',True)
citr_dm.print_out()

citr_dm = ciwfn.get_opdm(0,3,'SUM',True)
citr_dm.print_out()

citr_dm = ciwfn.get_opdm(1,2,'SUM',True)
citr_dm.print_out()

citr_dm = ciwfn.get_opdm(1,3,'SUM',True)
citr_dm.print_out()

citr_dm = ciwfn.get_opdm(2,3,'SUM',True)
citr_dm.print_out()

mints = MintsHelper(ciwfn.basisset())

AOdip = mints.ao_dipole()
AOdip[0].print_out()
AOdip[1].print_out()
AOdip[2].print_out()

ciwfn.Ca().print_out()               # Print orbital information

--------------------------------------------------------------------------

    Molecular point group: c2v
  Charge       = 1
  Multiplicity = 1
  @RHF Final Energy:    -2.90985437754512
    Total Energy =                         -2.9098543775451233
 Dipole X            :          0.0000000            0.0000000            0.0000000
 Dipole Y            :          0.0000000            0.0000000            0.0000000
 Dipole Z            :         -0.1748680           -0.5785341           -0.7534021
 Magnitude           :                                                    0.7534021
    Molecular point group: c2v

    Geometry (in Angstrom), charge = 1, multiplicity = 1:

       Center              X                  Y                   Z               Mass
    ------------   -----------------  -----------------  -----------------  -----------------
         H            0.000000000000     0.000000000000    -0.616715684885     1.007825032230
         HE           0.000000000000     0.000000000000     0.155284315115     4.002603254130

  Charge       = 1
  Multiplicity = 1

    Orbital Energies [Eh]
    ---------------------

    Doubly Occupied:

       1A1    -1.632772

  @RHF Final Energy:    -2.90985437754512
    Total Energy =                         -2.9098543775451224

   ==> Energetics <==

    SCF energy =           -2.909854377545122
    Total CI energy =      -2.932310749393181

   ==> FCI root 0 information <==

    FCI Root 0 energy =    -2.932310749393181

   The 16 most important determinants:

    *   1    0.996034  (    0,    0)  1A1X
    *   2   -0.047811  (    1,    1)  2A1X
    *   3   -0.044652  (    3,    3)  4A1X
    *   4   -0.034978  (    3,    1)  2A1B 4A1A
    *   5   -0.034978  (    1,    3)  2A1A 4A1B
    *   6   -0.016502  (    2,    2)  3A1X
    *   7   -0.015720  (    1,    2)  2A1A 3A1B
    *   8   -0.015720  (    2,    1)  2A1B 3A1A
    *   9    0.013309  (    0,    1)  1A1A 2A1B
    *  10    0.013309  (    1,    0)  1A1B 2A1A
    *  11    0.005605  (    0,    2)  1A1A 3A1B
    *  12    0.005605  (    2,    0)  1A1B 3A1A
    *  13   -0.001544  (    2,    3)  3A1A 4A1B
    *  14   -0.001544  (    3,    2)  3A1B 4A1A
    *  15    0.000487  (    0,    3)  1A1A 4A1B
    *  16    0.000487  (    3,    0)  1A1B 4A1A

   ==> FCI root 1 information <==

 Dipole X            :          0.0000000            0.0000000            0.0000000
 Dipole Y            :          0.0000000            0.0000000            0.0000000
 Dipole Z            :         -0.0111542            0.0000000           -0.0111542
 Magnitude           :                                                    0.0111542
*** Psi4 exiting successfully. Buy a developer a beer!
