                               Psi4 1.9.1 release

  ==> Input File <==

--------------------------------------------------------------------------
molecule h2 {
0 1
H  0.       0.      -0.37
H  0.       0.       0.37
}

set {
    reference rhf
    basis sto-3g
    ms0 false
    print 2
    dipmom true
    opdm true
    tdm true
    mo_write true
}

energy('fci')

thisenergy, ciwfn = prop('fci', properties=['DIPOLE', 'TRANSITION_DIPOLE'], return_wfn=True)

# for i in range(4):
#     for j in range(i+1):
#         ciop_dm = ciwfn.get_opdm(i,j,'SUM',True)
#         ciop_dm.print_out()

mints = MintsHelper(ciwfn.basisset())

AOdip = mints.ao_dipole()
AOdip[0].print_out()
AOdip[1].print_out()
AOdip[2].print_out()

ciwfn.Ca().print_out()               # Print orbital information

--------------------------------------------------------------------------

    Molecular point group: d2h
  Charge       = 0
  Multiplicity = 1
  @RHF Final Energy:    -1.11675930737816
    Total Energy =                         -1.1167593073781577
 Dipole X            :          0.0000000            0.0000000            0.0000000
 Dipole Y            :          0.0000000            0.0000000            0.0000000
 Dipole Z            :          0.0000000            0.0000000            0.0000000
 Magnitude           :                                                    0.0000000
    Molecular point group: d2h

    Geometry (in Angstrom), charge = 0, multiplicity = 1:

       Center              X                  Y                   Z               Mass
    ------------   -----------------  -----------------  -----------------  -----------------
         H            0.000000000000     0.000000000000    -0.370000000000     1.007825032230
         H            0.000000000000     0.000000000000     0.370000000000     1.007825032230

  Charge       = 0
  Multiplicity = 1

    Orbital Energies [Eh]
    ---------------------

    Doubly Occupied:

       1Ag    -0.578554

  @RHF Final Energy:    -1.11675930737816
    Total Energy =                         -1.1167593073781577

   ==> Energetics <==

    SCF energy =           -1.116759307378158
    Total CI energy =      -1.137283834485514

   ==> FCI root 0 information <==

    FCI Root 0 energy =    -1.137283834485514

   The 2 most important determinants:

    *   1   -0.993647  (    0,    0)  1AgX
    *   2    0.112544  (    1,    1)  1B1uX

		 "A good bug is a dead bug"

			 - Starship Troopers

		 "I didn't write FORTRAN.  That's the problem."

			 - Edward Valeev

Properties will be evaluated at   0.000000,   0.000000,   0.000000 [a0]

Properties computed using the FCI density matrix

 Multipole Moments:

 ------------------------------------------------------------------------------------

 Dipole X            :          0.0000000            0.0000000            0.0000000
 Dipole Y            :          0.0000000            0.0000000            0.0000000
 Dipole Z            :          0.0000000            0.0000000            0.0000000
 Magnitude           :                                                    0.0000000
*** Psi4 exiting successfully. Buy a developer a beer!
