 ----------------------------------------------------------------------
 #p hf/sto-3g CIS(NStates=30,Root=1,AllTransitionDensities,Singlets) no
 symm IOp(3/33=3,3/36=1,4/33=3,5/33=3,5/72=-3,6/8=1,6/33=3,8/10=90,9/33
 =3,9/40=3)
 ----------------------------------------------------------------------

 CIS/STO-3G, S0 state single point, no-pert. calc. (all density matrice
 s printed)
 ----------------------------------------------------------------------
 Symbolic Z-matrix:
 Charge =  0 Multiplicity = 1

                          Input orientation:
 ---------------------------------------------------------------------
 Center     Atomic      Atomic             Coordinates (Angstroms)
 Number     Number       Type             X           Y           Z
 ---------------------------------------------------------------------
      1          1           0        0.000000    0.000000   -0.370000
      2          1           0        0.000000    0.000000    0.370000
 ---------------------------------------------------------------------

 SCF Done:  E(RHF) =  -1.11675930751     A.U. after    1 cycles

 Excitation energies and oscillator strengths:

 Excited state symmetry could not be determined.
 Excited State   1:      Singlet-?Sym   25.8075 eV   48.04 nm  f=1.0950  <S**2>=0.000
       1 ->  2         0.70711
 This state for optimization and/or second-order correction.
 Total Energy, E(CIS/TDA) = -0.168352441672
 Copying the excited state density for this state as the 1-particle RhoCI density.
    CIS Density (Total):
                1             2
      1  0.177127D+01
      2 -0.116881D+01  0.177127D+01

 Alpha  occ. eigenvalues --   -0.57855
 Alpha virt. eigenvalues --    0.67114

 Mulliken charges:
               1
     1  H   -0.000000
     2  H    0.000000
 Sum of Mulliken charges =   0.00000

 Dipole moment (field-independent basis, Debye):
    X=              0.0000    Y=              0.0000    Z=              0.0000  Tot=              0.0000
 Quadrupole moment (field-independent basis, Debye-Ang):
   XX=             -1.8475   YY=             -1.8475   ZZ=             -1.4274
   XY=              0.0000   XZ=              0.0000   YZ=              0.0000

 Normal termination of Gaussian DV at Wed Jul 20 01:46:16 2022.
