 ----------------------------------------------------------------------
 #p hf/6-31g CIS(NStates=30,Root=1,AllTransitionDensities,Singlets) nos
 ymm IOp(3/33=3,3/36=1,4/33=3,5/33=3,5/72=-3,6/8=1,6/33=3,8/10=90,9/33=
 3,9/40=3)
 ----------------------------------------------------------------------

 ---------------
 CIS calculation
 ---------------
 Symbolic Z-matrix:
 Charge =  1 Multiplicity = 1

                          Input orientation:
 ---------------------------------------------------------------------
 Center     Atomic      Atomic             Coordinates (Angstroms)
 Number     Number       Type             X           Y           Z
 ---------------------------------------------------------------------
      1          1           0        0.000000    0.000000   -0.386000
      2          2           0        0.000000    0.000000    0.386000
 ---------------------------------------------------------------------

 SCF Done:  E(RHF) =  -2.90985437686     A.U. after    6 cycles

 Excitation energies and oscillator strengths:

 Excited state symmetry could not be determined.
 Excited State   1:      Singlet-?Sym   28.0071 eV   44.27 nm  f=0.4625  <S**2>=0.000
       1 ->  2         0.70499
       1 ->  3         0.05374
       1 ->  4        -0.01035
 This state for optimization and/or second-order correction.
 Total Energy, E(CIS/TDA) =  -1.88061388111
 Copying the excited state density for this state as the 1-particle RhoCI density.
    CIS Density (Total):
                1             2             3             4
      1  0.263414D+00
      2  0.483071D+00  0.110142D+01
      3  0.288243D-01 -0.245380D+00  0.415857D+00
      4 -0.298821D+00 -0.871760D+00  0.415315D+00  0.825332D+00

 Excited state symmetry could not be determined.
 Excited State   2:      Singlet-?Sym   44.8501 eV   27.64 nm  f=0.2095  <S**2>=0.000
       1 ->  2        -0.05406
       1 ->  3         0.70465
       1 ->  4        -0.02323

 Excited state symmetry could not be determined.
 Excited State   3:      Singlet-?Sym   61.9719 eV   20.01 nm  f=0.0000  <S**2>=0.000
       1 ->  2         0.00855
       1 ->  3         0.02395
       1 ->  4         0.70665

 Alpha  occ. eigenvalues --   -1.63277
 Alpha virt. eigenvalues --   -0.26311   0.43940   1.07632

 Mulliken charges:
               1
     1  H    0.731608
     2  He   0.268392
 Sum of Mulliken charges =   1.00000

 Dipole moment (field-independent basis, Debye):
    X=              0.0000    Y=              0.0000    Z=             -0.8068  Tot=              0.8068
 Quadrupole moment (field-independent basis, Debye-Ang):
   XX=             -0.8825   YY=             -0.8825   ZZ=              0.0314
   XY=              0.0000   XZ=              0.0000   YZ=              0.0000

 Normal termination of Gaussian DV at Tue Jun 27 13:38:44 2023.
