 ----------------------------------------------------------------------
 #p hf/6-31g CIS(NStates=30,Root=1,AllTransitionDensities,Singlets) nos
 ymm IOp(3/33=3,3/36=1,4/33=3,5/33=3,5/72=-3,6/8=1,6/33=3,8/10=90,9/33=
 3,9/40=3)
 ----------------------------------------------------------------------

 CIS/6-31G, S0 state single point, no-pert. calc. (all density matrices
  printed)
 ----------------------------------------------------------------------
 Symbolic Z-matrix:
 Charge =  0 Multiplicity = 1

                          Input orientation:
 ---------------------------------------------------------------------
 Center     Atomic      Atomic             Coordinates (Angstroms)
 Number     Number       Type             X           Y           Z
 ---------------------------------------------------------------------
      1          1           0        0.000000    0.000000   -0.370000
      2          1           0        0.000000    0.000000    0.370000
 ---------------------------------------------------------------------

 SCF Done:  E(RHF) =  -1.12675531346     A.U. after    4 cycles

 Excitation energies and oscillator strengths:

 Excited state symmetry could not be determined.
 Excited State   1:      Singlet-?Sym   15.2476 eV   81.31 nm  f=0.7700  <S**2>=0.000
       1 ->  2         0.70703
       1 ->  4         0.01031
 This state for optimization and/or second-order correction.
 Total Energy, E(CIS/TDA) = -0.566416163392
 Copying the excited state density for this state as the 1-particle RhoCI density.
    CIS Density (Total):
                1             2             3             4
      1  0.118179D+00
      2  0.273167D+00  0.308199D+01
      3  0.955944D-01 -0.954416D-01  0.118179D+00
      4 -0.954416D-01 -0.293423D+01  0.273167D+00  0.308199D+01

 Excited state symmetry could not be determined.
 Excited State   2:      Singlet-?Sym   28.7709 eV   43.09 nm  f=0.0000  <S**2>=0.000
       1 ->  3         0.70711

 Excited state symmetry could not be determined.
 Excited State   3:      Singlet-?Sym   43.8775 eV   28.26 nm  f=0.1083  <S**2>=0.000
       1 ->  2        -0.01031
       1 ->  4         0.70703

 Alpha  occ. eigenvalues --   -0.59582
 Alpha virt. eigenvalues --    0.23847   0.77472   1.40441

 Mulliken charges:
               1
     1  H   -0.000000
     2  H    0.000000
 Sum of Mulliken charges =  -0.00000

 Dipole moment (field-independent basis, Debye):
    X=              0.0000    Y=              0.0000    Z=              0.0000  Tot=              0.0000
 Quadrupole moment (field-independent basis, Debye-Ang):
   XX=             -2.0430   YY=             -2.0430   ZZ=             -1.6188
   XY=              0.0000   XZ=              0.0000   YZ=              0.0000

 Normal termination of Gaussian DV at Mon Jun 26 08:57:20 2023.
